
Predictions were generated on 06-Feb-2019 at 11:33:08 using FAST (v8.16.00a-bjj, 27-Jul-2016), compiled as a 64-bit application using single precision
