
Predictions were generated on 05-Feb-2019 at 10:24:22 using FAST (v8.16.00a-bjj, 27-Jul-2016), compiled as a 64-bit application using single precision
 linked with  NWTC Subroutine Library (v2.09.00, 23-Jul-2016); ElastoDyn (v1.04.00a-bjj, 26-Jul-2016); InflowWind (v3.03.00, 26-Jul-2016); AeroDyn14 (v14.05.01a-bjj, 25-Jul-2016); ServoDyn (v1.06.00a-bjj, 26-Jul-2016)

Description from the FAST input file: ---

Time      	Spn2ALxb1 	TipDyb2   	TipDxb2   	Spn2ALyb1 	TipALyb2  	TipALxb2  	LSSGagPxa 	TeetDefl  	LSSGagVxa 	YawBrRDyt 	YawBrRAxp 	YawBrRVyp 	YawBrRDxt 	YawBrRAyp 	YawBrRVxp 	RootFxc2  	Spn3MLxb1 	RootMyc1  	RootFyc2  	Spn3MLyb1 	RootMxc1  	RotTorq   	YawBrMzn  	TwrBsMzt  
(s)       	(m/s^2)   	(m)       	(m)       	(m/s^2)   	(m/s^2)   	(m/s^2)   	(deg)     	(deg)     	(rpm)     	(deg)     	(deg/s^2) 	(deg/s)   	(deg)     	(deg/s^2) 	(deg/s)   	(kN)      	(kN·m)    	(kN·m)    	(kN)      	(kN·m)    	(kN·m)    	(kN·m)    	(kN·m)    	(kN·m)    
   10.0000	 2.749E+01	-2.519E-02	 1.621E-01	 2.372E+00	-6.314E-01	 7.222E+01	 1.830E+01	 9.530E-01	 5.428E+01	 1.001E-01	-2.171E-01	-3.177E-02	 3.380E-02	 3.895E-01	-1.714E-03	 4.917E+00	 1.655E+00	 3.653E+01	-1.198E+00	 3.723E+00	 2.079E+01	 3.560E+01	-1.861E+00	-1.864E+00
   10.0200	 2.817E+01	-2.498E-02	 1.590E-01	 2.164E+00	 1.294E+00	 7.225E+01	 2.482E+01	 8.770E-01	 5.428E+01	 9.952E-02	-1.913E-01	-2.767E-02	 3.372E-02	-2.277E-02	-5.888E-03	 4.949E+00	 1.774E+00	 3.624E+01	-9.598E-01	 3.904E+00	 2.237E+01	 3.676E+01	-1.884E+00	-1.886E+00
   10.0400	 2.959E+01	-2.419E-02	 1.592E-01	 2.307E+00	 1.764E+00	 6.883E+01	 3.133E+01	 7.891E-01	 5.429E+01	 9.893E-02	-1.324E-01	-3.264E-02	 3.357E-02	-4.294E-01	-9.131E-03	 4.802E+00	 1.992E+00	 3.533E+01	-5.707E-01	 4.234E+00	 2.462E+01	 3.722E+01	-2.803E+00	-2.804E+00
   10.0600	 3.038E+01	-2.287E-02	 1.613E-01	 2.564E+00	 8.783E-01	 6.489E+01	 3.784E+01	 6.904E-01	 5.429E+01	 9.818E-02	-8.500E-02	-4.178E-02	 3.336E-02	-3.932E-01	-1.125E-02	 4.692E+00	 2.246E+00	 3.483E+01	-6.432E-02	 4.471E+00	 2.714E+01	 3.681E+01	-4.238E+00	-4.238E+00
   10.0800	 3.017E+01	-2.157E-02	 1.642E-01	 2.708E+00	-4.676E-01	 6.363E+01	 4.436E+01	 5.835E-01	 5.429E+01	 9.730E-02	-8.793E-02	-4.521E-02	 3.312E-02	 1.006E-01	-1.287E-02	 4.722E+00	 2.479E+00	 3.520E+01	 4.404E-01	 4.520E+00	 2.946E+01	 3.611E+01	-5.521E+00	-5.521E+00
   10.1000	 2.934E+01	-2.087E-02	 1.670E-01	 2.629E+00	-9.686E-01	 6.444E+01	 5.087E+01	 4.698E-01	 5.429E+01	 9.645E-02	-1.385E-01	-3.750E-02	 3.284E-02	 6.338E-01	-1.509E-02	 4.869E+00	 2.622E+00	 3.617E+01	 8.112E-01	 4.436E+00	 3.110E+01	 3.579E+01	-6.186E+00	-6.184E+00
   10.1200	 2.871E+01	-2.094E-02	 1.698E-01	 2.384E+00	-1.758E-01	 6.523E+01	 5.739E+01	 3.499E-01	 5.428E+01	 9.584E-02	-1.797E-01	-2.257E-02	 3.251E-02	 7.738E-01	-1.835E-02	 5.012E+00	 2.652E+00	 3.708E+01	 1.004E+00	 4.359E+00	 3.194E+01	 3.610E+01	-6.234E+00	-6.232E+00
   10.1400	 2.874E+01	-2.146E-02	 1.727E-01	 2.122E+00	 1.245E+00	 6.491E+01	 6.390E+01	 2.250E-01	 5.428E+01	 9.553E-02	-1.501E-01	-9.712E-03	 3.211E-02	 4.533E-01	-2.180E-02	 5.058E+00	 2.611E+00	 3.752E+01	 1.084E+00	 4.379E+00	 3.225E+01	 3.672E+01	-6.015E+00	-6.012E+00
   10.1600	 2.923E+01	-2.192E-02	 1.754E-01	 1.971E+00	 2.268E+00	 6.375E+01	 7.042E+01	 9.623E-02	 5.429E+01	 9.540E-02	-3.514E-02	-5.412E-03	 3.165E-02	-1.100E-02	-2.377E-02	 5.026E+00	 2.567E+00	 3.759E+01	 1.151E+00	 4.468E+00	 3.249E+01	 3.715E+01	-5.878E+00	-5.875E+00
   10.1800	 2.967E+01	-2.194E-02	 1.772E-01	 1.979E+00	 2.291E+00	 6.279E+01	 7.693E+01	-3.494E-02	 5.429E+01	 9.527E-02	 1.155E-01	-8.407E-03	 3.118E-02	-2.235E-01	-2.296E-02	 4.992E+00	 2.577E+00	 3.767E+01	 1.268E+00	 4.544E+00	 3.298E+01	 3.719E+01	-5.901E+00	-5.897E+00
   10.2000	 2.978E+01	-2.153E-02	 1.778E-01	 2.113E+00	 1.455E+00	 6.281E+01	 8.345E+01	-1.667E-01	 5.430E+01	 9.506E-02	 2.200E-01	-1.172E-02	 3.075E-02	-4.711E-02	-1.947E-02	 4.992E+00	 2.653E+00	 3.795E+01	 1.422E+00	 4.553E+00	 3.375E+01	 3.700E+01	-5.894E+00	-5.890E+00
   10.2200	 2.966E+01	-2.100E-02	 1.774E-01	 2.286E+00	 4.314E-01	 6.360E+01	 8.996E+01	-2.966E-01	 5.430E+01	 9.484E-02	 2.308E-01	-8.935E-03	 3.041E-02	 3.327E-01	-1.480E-02	 5.013E+00	 2.753E+00	 3.838E+01	 1.545E+00	 4.513E+00	 3.451E+01	 3.689E+01	-5.629E+00	-5.626E+00
   10.2400	 2.961E+01	-2.069E-02	 1.764E-01	 2.420E+00	-1.318E-01	 6.442E+01	 9.648E+01	-4.224E-01	 5.430E+01	 9.475E-02	 1.744E-01	 7.823E-04	 3.015E-02	 5.962E-01	-1.069E-02	 5.022E+00	 2.806E+00	 3.874E+01	 1.571E+00	 4.470E+00	 3.485E+01	 3.703E+01	-5.054E+00	-5.051E+00
   10.2600	 2.976E+01	-2.078E-02	 1.752E-01	 2.483E+00	-4.527E-02	 6.478E+01	 1.030E+02	-5.418E-01	 5.430E+01	 9.489E-02	 1.220E-01	 1.277E-02	 2.997E-02	 5.511E-01	-7.804E-03	 4.980E+00	 2.768E+00	 3.890E+01	 1.481E+00	 4.451E+00	 3.453E+01	 3.734E+01	-4.286E+00	-4.284E+00
   10.2800	 3.002E+01	-2.119E-02	 1.743E-01	 2.491E+00	 3.716E-01	 6.476E+01	 1.095E+02	-6.527E-01	 5.430E+01	 9.524E-02	 1.345E-01	 2.126E-02	 2.984E-02	 2.773E-01	-5.366E-03	 4.910E+00	 2.652E+00	 3.894E+01	 1.305E+00	 4.442E+00	 3.363E+01	 3.760E+01	-3.486E+00	-3.484E+00
   10.3000	 3.015E+01	-2.171E-02	 1.735E-01	 2.502E+00	 6.478E-01	 6.465E+01	 1.160E+02	-7.536E-01	 5.431E+01	 9.570E-02	 2.095E-01	 2.386E-02	 2.976E-02	 1.151E-03	-1.992E-03	 4.839E+00	 2.510E+00	 3.900E+01	 1.094E+00	 4.410E+00	 3.245E+01	 3.766E+01	-2.726E+00	-2.724E+00
   10.3200	 3.007E+01	-2.218E-02	 1.730E-01	 2.565E+00	 5.025E-01	 6.462E+01	 1.225E+02	-8.435E-01	 5.431E+01	 9.616E-02	 2.894E-01	 2.257E-02	 2.977E-02	-9.284E-02	 3.047E-03	 4.783E+00	 2.394E+00	 3.917E+01	 8.797E-01	 4.344E+00	 3.129E+01	 3.759E+01	-1.970E+00	-1.970E+00
   10.3400	 2.985E+01	-2.257E-02	 1.726E-01	 2.688E+00	 8.560E-03	 6.461E+01	 1.291E+02	-9.215E-01	 5.431E+01	 9.660E-02	 3.168E-01	 2.151E-02	 2.989E-02	 1.276E-02	 9.226E-03	 4.742E+00	 2.315E+00	 3.942E+01	 6.490E-01	 4.265E+00	 3.021E+01	 3.751E+01	-1.204E+00	-1.205E+00
   10.3600	 2.967E+01	-2.299E-02	 1.722E-01	 2.841E+00	-5.323E-01	 6.449E+01	 1.356E+02	-9.870E-01	 5.431E+01	 9.705E-02	 2.727E-01	 2.352E-02	 3.014E-02	 1.854E-01	 1.523E-02	 4.701E+00	 2.245E+00	 3.967E+01	 3.839E-01	 4.204E+00	 2.906E+01	 3.750E+01	-4.863E-01	-4.875E-01
   10.3800	 2.963E+01	-2.355E-02	 1.718E-01	 2.978E+00	-8.900E-01	 6.437E+01	 1.421E+02	-1.039E+00	 5.431E+01	 9.756E-02	 1.883E-01	 2.836E-02	 3.049E-02	 2.762E-01	 1.986E-02	 4.653E+00	 2.148E+00	 3.987E+01	 6.323E-02	 4.185E+00	 2.764E+01	 3.755E+01	 7.863E-02	 7.669E-02
   10.4000	 2.962E+01	-2.429E-02	 1.713E-01	 3.066E+00	-1.010E+00	 6.438E+01	 1.486E+02	-1.078E+00	 5.431E+01	 9.818E-02	 1.095E-01	 3.353E-02	 3.092E-02	 2.087E-01	 2.281E-02	 4.591E+00	 2.002E+00	 4.003E+01	-3.155E-01	 4.201E+00	 2.584E+01	 3.758E+01	 3.827E-01	 3.802E-01
   10.4200	 2.970E+01	-2.517E-02	 1.707E-01	 3.123E+00	-9.545E-01	 6.437E+01	 1.551E+02	-1.103E+00	 5.432E+01	 9.889E-02	 7.093E-02	 3.632E-02	 3.139E-02	 6.763E-02	 2.455E-02	 4.557E+00	 1.815E+00	 4.027E+01	-7.336E-01	 4.233E+00	 2.374E+01	 3.755E+01	 4.256E-01	 4.226E-01
   10.4400	 2.949E+01	-2.610E-02	 1.700E-01	 3.158E+00	-9.537E-01	 6.458E+01	 1.616E+02	-1.113E+00	 5.432E+01	 9.961E-02	 4.748E-02	 3.559E-02	 3.190E-02	-1.135E-01	 2.567E-02	 4.480E+00	 1.623E+00	 4.038E+01	-1.172E+00	 4.258E+00	 2.147E+01	 3.738E+01	 2.257E-01	 2.225E-01
   10.4600	 2.708E+01	-2.700E-02	 1.691E-01	 3.202E+00	-1.020E+00	 6.479E+01	 1.682E+02	-1.110E+00	 5.431E+01	 1.003E-01	 3.056E-02	 3.148E-02	 3.242E-02	-2.872E-01	 2.646E-02	 4.275E+00	 1.514E+00	 3.987E+01	-1.638E+00	 4.291E+00	 1.892E+01	 3.697E+01	-3.792E-01	-3.827E-01
   10.4800	 2.116E+01	-2.780E-02	 1.675E-01	 3.579E+00	-1.034E+00	 6.450E+01	 1.747E+02	-1.097E+00	 5.431E+01	 1.009E-01	-7.759E-04	 2.710E-02	 3.296E-02	-1.670E-01	 2.702E-02	 4.130E+00	 1.548E+00	 3.910E+01	-2.080E+00	 4.668E+00	 1.659E+01	 3.669E+01	-8.592E-01	-8.629E-01
   10.5000	 3.568E+01	-2.843E-02	 1.645E-01	 3.574E+00	-1.037E+00	 6.393E+01	 1.812E+02	-1.075E+00	 5.431E+01	 1.014E-01	-9.272E-02	 2.155E-02	 3.349E-02	-3.304E-01	 2.566E-02	 3.654E+00	 9.375E-01	 3.680E+01	-2.622E+00	 4.964E+00	 1.300E+01	 3.572E+01	-2.067E+00	-2.070E+00
   10.5200	 3.096E+01	-2.902E-02	 1.601E-01	 3.089E+00	-8.991E-01	 6.333E+01	 1.877E+02	-1.045E+00	 5.429E+01	 1.018E-01	-1.166E-01	 2.082E-02	 3.398E-02	 1.710E-01	 2.390E-02	 4.081E+00	 4.773E-01	 3.834E+01	-3.050E+00	 4.379E+00	 9.889E+00	 3.455E+01	-2.751E+00	-2.754E+00
   10.5400	 2.955E+01	-2.942E-02	 1.582E-01	 3.220E+00	-2.709E+00	 6.908E+01	 1.942E+02	-9.911E-01	 5.428E+01	 1.022E-01	-2.299E-01	 2.655E-02	 3.443E-02	 3.610E-01	 2.033E-02	 4.195E+00	 5.635E-01	 3.961E+01	-3.310E+00	 3.859E+00	 9.459E+00	 3.480E+01	-2.228E+00	-2.231E+00
   10.5600	 2.835E+01	-2.996E-02	 1.591E-01	 3.654E+00	-3.742E+00	 7.011E+01	 2.007E+02	-9.214E-01	 5.428E+01	 1.028E-01	-2.629E-01	 3.201E-02	 3.478E-02	 1.173E-01	 1.525E-02	 4.224E+00	 7.339E-01	 4.016E+01	-3.611E+00	 3.558E+00	 9.473E+00	 3.597E+01	-1.800E+00	-1.802E+00
   10.5800	 2.860E+01	-3.094E-02	 1.625E-01	 3.983E+00	-3.527E+00	 6.619E+01	 2.073E+02	-8.402E-01	 5.428E+01	 1.035E-01	-2.314E-01	 2.928E-02	 3.504E-02	-3.982E-01	 1.025E-02	 4.073E+00	 7.232E-01	 3.981E+01	-4.013E+00	 3.570E+00	 8.438E+00	 3.694E+01	-2.194E+00	-2.195E+00
   10.6000	 2.957E+01	-3.232E-02	 1.671E-01	 4.015E+00	-2.922E+00	 6.254E+01	 2.138E+02	-7.474E-01	 5.429E+01	 1.039E-01	-1.845E-01	 1.746E-02	 3.520E-02	-7.102E-01	 6.088E-03	 3.819E+00	 4.951E-01	 3.914E+01	-4.473E+00	 3.808E+00	 6.118E+00	 3.705E+01	-3.385E+00	-3.385E+00
   10.6200	 3.010E+01	-3.388E-02	 1.712E-01	 3.795E+00	-2.290E+00	 6.133E+01	 2.203E+02	-6.452E-01	 5.429E+01	 1.041E-01	-1.623E-01	 4.425E-03	 3.529E-02	-5.067E-01	 2.701E-03	 3.713E+00	 1.316E-01	 3.909E+01	-4.939E+00	 4.042E+00	 3.068E+00	 3.645E+01	-4.845E+00	-4.844E+00
   10.6400	 2.977E+01	-3.530E-02	 1.737E-01	 3.553E+00	-1.944E+00	 6.251E+01	 2.268E+02	-5.358E-01	 5.429E+01	 1.042E-01	-1.958E-01	-5.211E-04	 3.531E-02	 2.984E-02	-7.874E-04	 3.824E+00	-1.816E-01	 3.991E+01	-5.340E+00	 4.151E+00	 4.095E-01	 3.584E+01	-5.926E+00	-5.925E+00
   10.6600	 2.907E+01	-3.632E-02	 1.752E-01	 3.522E+00	-2.163E+00	 6.461E+01	 2.333E+02	-4.201E-01	 5.428E+01	 1.042E-01	-2.592E-01	 4.594E-03	 3.525E-02	 4.195E-01	-5.337E-03	 4.018E+00	-2.948E-01	 4.104E+01	-5.629E+00	 4.188E+00	-9.759E-01	 3.579E+01	-6.331E+00	-6.329E+00
   10.6800	 2.869E+01	-3.688E-02	 1.765E-01	 3.750E+00	-2.834E+00	 6.563E+01	 2.398E+02	-2.989E-01	 5.428E+01	 1.044E-01	-2.866E-01	 1.305E-02	 3.509E-02	 3.442E-01	-1.091E-02	 4.154E+00	-2.220E-01	 4.184E+01	-5.812E+00	 4.251E+00	-1.145E+00	 3.628E+01	-6.223E+00	-6.221E+00
   10.7000	 2.883E+01	-3.713E-02	 1.782E-01	 4.077E+00	-3.592E+00	 6.500E+01	 2.463E+02	-1.734E-01	 5.428E+01	 1.047E-01	-2.286E-01	 1.587E-02	 3.481E-02	-9.498E-02	-1.621E-02	 4.190E+00	-9.869E-02	 4.212E+01	-5.936E+00	 4.374E+00	-8.721E-01	 3.689E+01	-5.994E+00	-5.990E+00
   10.7200	 2.919E+01	-3.735E-02	 1.801E-01	 4.280E+00	-4.070E+00	 6.384E+01	 2.529E+02	-4.468E-02	 5.429E+01	 1.049E-01	-9.480E-02	 9.436E-03	 3.445E-02	-5.091E-01	-1.953E-02	 4.173E+00	-5.768E-02	 4.210E+01	-6.052E+00	 4.510E+00	-9.496E-01	 3.718E+01	-5.911E+00	-5.907E+00
   10.7400	 2.934E+01	-3.774E-02	 1.818E-01	 4.245E+00	-4.039E+00	 6.346E+01	 2.594E+02	 8.571E-02	 5.429E+01	 1.050E-01	 4.725E-02	-2.073E-03	 3.405E-02	-5.735E-01	-1.995E-02	 4.174E+00	-1.418E-01	 4.213E+01	-6.184E+00	 4.592E+00	-1.650E+00	 3.711E+01	-5.938E+00	-5.934E+00
   10.7600	 2.916E+01	-3.830E-02	 1.830E-01	 4.030E+00	-3.535E+00	 6.403E+01	 2.659E+02	 2.158E-01	 5.429E+01	 1.049E-01	 1.199E-01	-1.105E-02	 3.367E-02	-2.833E-01	-1.812E-02	 4.224E+00	-2.931E-01	 4.228E+01	-6.317E+00	 4.591E+00	-2.641E+00	 3.693E+01	-5.839E+00	-5.835E+00
   10.7800	 2.886E+01	-3.882E-02	 1.837E-01	 3.802E+00	-2.895E+00	 6.487E+01	 2.724E+02	 3.432E-01	 5.430E+01	 1.046E-01	 1.011E-01	-1.282E-02	 3.333E-02	 9.221E-02	-1.578E-02	 4.294E+00	-4.060E-01	 4.240E+01	-6.406E+00	 4.539E+00	-3.306E+00	 3.693E+01	-5.440E+00	-5.437E+00
   10.8000	 2.869E+01	-3.904E-02	 1.839E-01	 3.695E+00	-2.525E+00	 6.530E+01	 2.789E+02	 4.658E-01	 5.430E+01	 1.044E-01	 4.036E-02	-8.824E-03	 3.303E-02	 2.555E-01	-1.436E-02	 4.340E+00	-4.076E-01	 4.231E+01	-6.409E+00	 4.483E+00	-3.209E+00	 3.717E+01	-4.770E+00	-4.766E+00
   10.8200	 2.871E+01	-3.883E-02	 1.839E-01	 3.720E+00	-2.587E+00	 6.515E+01	 2.854E+02	 5.814E-01	 5.430E+01	 1.043E-01	 1.305E-02	-4.630E-03	 3.275E-02	 1.213E-01	-1.393E-02	 4.358E+00	-3.053E-01	 4.198E+01	-6.313E+00	 4.448E+00	-2.375E+00	 3.749E+01	-3.972E+00	-3.970E+00
   10.8400	 2.883E+01	-3.827E-02	 1.833E-01	 3.785E+00	-2.916E+00	 6.489E+01	 2.920E+02	 6.880E-01	 5.430E+01	 1.042E-01	 5.960E-02	-4.947E-03	 3.248E-02	-1.572E-01	-1.332E-02	 4.371E+00	-1.601E-01	 4.156E+01	-6.141E+00	 4.429E+00	-1.163E+00	 3.769E+01	-3.188E+00	-3.186E+00
   10.8600	 2.891E+01	-3.756E-02	 1.823E-01	 3.781E+00	-3.152E+00	 6.507E+01	 2.985E+02	 7.846E-01	 5.431E+01	 1.040E-01	 1.535E-01	-1.031E-02	 3.223E-02	-3.486E-01	-1.122E-02	 4.405E+00	-3.191E-02	 4.118E+01	-5.928E+00	 4.413E+00	 3.999E-02	 3.770E+01	-2.442E+00	-2.441E+00
   10.8800	 2.893E+01	-3.689E-02	 1.808E-01	 3.674E+00	-3.024E+00	 6.568E+01	 3.050E+02	 8.700E-01	 5.431E+01	 1.038E-01	 2.287E-01	-1.744E-02	 3.204E-02	-3.290E-01	-7.314E-03	 4.462E+00	 5.490E-02	 4.090E+01	-5.700E+00	 4.396E+00	 1.093E+00	 3.761E+01	-1.688E+00	-1.687E+00
   10.9000	 2.899E+01	-3.630E-02	 1.794E-01	 3.510E+00	-2.564E+00	 6.630E+01	 3.115E+02	 9.436E-01	 5.431E+01	 1.034E-01	 2.409E-01	-2.233E-02	 3.194E-02	-1.448E-01	-2.490E-03	 4.528E+00	 1.202E-01	 4.065E+01	-5.453E+00	 4.384E+00	 2.143E+00	 3.757E+01	-9.408E-01	-9.415E-01
   10.9200	 2.907E+01	-3.571E-02	 1.784E-01	 3.364E+00	-2.019E+00	 6.655E+01	 3.180E+02	 1.005E+00	 5.431E+01	 1.029E-01	 1.889E-01	-2.320E-02	 3.194E-02	 4.684E-02	 1.887E-03	 4.573E+00	 2.095E-01	 4.034E+01	-5.168E+00	 4.377E+00	 3.412E+00	 3.760E+01	-2.789E-01	-2.803E-01
   10.9400	 2.912E+01	-3.501E-02	 1.779E-01	 3.271E+00	-1.611E+00	 6.628E+01	 3.245E+02	 1.053E+00	 5.431E+01	 1.025E-01	 1.166E-01	-2.121E-02	 3.201E-02	 1.318E-01	 4.927E-03	 4.611E+00	 3.474E-01	 3.997E+01	-4.831E+00	 4.366E+00	 5.037E+00	 3.767E+01	 1.972E-01	 1.951E-01
   10.9600	 2.918E+01	-3.414E-02	 1.779E-01	 3.246E+00	-1.440E+00	 6.573E+01	 3.311E+02	 1.087E+00	 5.432E+01	 1.021E-01	 6.196E-02	-1.932E-02	 3.212E-02	 5.221E-02	 6.615E-03	 4.584E+00	 5.317E-01	 3.953E+01	-4.423E+00	 4.348E+00	 7.012E+00	 3.768E+01	 3.799E-01	 3.772E-01
   10.9800	 2.918E+01	-3.317E-02	 1.781E-01	 3.244E+00	-1.406E+00	 6.528E+01	 3.376E+02	 1.107E+00	 5.432E+01	 1.017E-01	 4.152E-02	-1.943E-02	 3.227E-02	-8.148E-02	 7.639E-03	 4.553E+00	 7.310E-01	 3.909E+01	-3.972E+00	 4.318E+00	 9.152E+00	 3.760E+01	 3.345E-01	 3.314E-01
   11.0000	 2.931E+01	-3.220E-02	 1.785E-01	 3.246E+00	-1.240E+00	 6.554E+01	 3.441E+02	 1.114E+00	 5.432E+01	 1.013E-01	 3.787E-02	-2.239E-02	 3.243E-02	-2.090E-01	 8.414E-03	 4.454E+00	 9.346E-01	 3.850E+01	-3.461E+00	 4.292E+00	 1.135E+01	 3.736E+01	 5.645E-03	 2.188E-03
   11.0200	 2.959E+01	-3.129E-02	 1.798E-01	 3.251E+00	 1.377E-01	 6.785E+01	 3.506E+02	 1.108E+00	 5.431E+01	 1.008E-01	 4.615E-02	-2.727E-02	 3.260E-02	-2.237E-01	 9.214E-03	 4.345E+00	 1.158E+00	 3.760E+01	-2.879E+00	 4.281E+00	 1.362E+01	 3.690E+01	-6.572E-01	-6.609E-01
   11.0400	 3.025E+01	-2.974E-02	 1.802E-01	 3.351E+00	 3.815E+00	 4.156E+01	 3.571E+02	 1.091E+00	 5.431E+01	 1.002E-01	-3.386E-02	-3.013E-02	 3.280E-02	-1.504E-01	 9.616E-03	 4.418E+00	 1.320E+00	 3.623E+01	-2.465E+00	 4.250E+00	 1.572E+01	 3.674E+01	-1.031E+00	-1.035E+00
   11.0600	 3.040E+01	-2.713E-02	 1.765E-01	 3.463E+00	-3.608E+00	 5.863E+01	 3.644E+00	 1.070E+00	 5.430E+01	 9.953E-02	-4.621E-02	-3.431E-02	 3.298E-02	-1.075E-02	 8.469E-03	 4.009E+00	 1.635E+00	 3.459E+01	-1.850E+00	 4.233E+00	 1.850E+01	 3.530E+01	-2.461E+00	-2.465E+00
   11.0800	 2.889E+01	-2.556E-02	 1.701E-01	 3.054E+00	-3.884E+00	 6.946E+01	 1.016E+01	 1.032E+00	 5.429E+01	 9.889E-02	-1.186E-01	-2.925E-02	 3.313E-02	 4.035E-01	 7.143E-03	 4.359E+00	 1.707E+00	 3.517E+01	-1.417E+00	 3.961E+00	 1.988E+01	 3.453E+01	-2.631E+00	-2.635E+00
   11.1000	 2.761E+01	-2.519E-02	 1.633E-01	 2.482E+00	-1.252E+00	 7.168E+01	 1.667E+01	 9.717E-01	 5.428E+01	 9.840E-02	-1.951E-01	-1.933E-02	 3.325E-02	 4.986E-01	 3.880E-03	 4.824E+00	 1.648E+00	 3.629E+01	-1.238E+00	 3.720E+00	 2.052E+01	 3.527E+01	-1.967E+00	-1.970E+00
   11.1200	 2.790E+01	-2.506E-02	 1.593E-01	 2.176E+00	 9.808E-01	 7.245E+01	 2.319E+01	 8.980E-01	 5.428E+01	 9.809E-02	-1.885E-01	-1.221E-02	 3.329E-02	 1.506E-01	-6.526E-05	 4.948E+00	 1.729E+00	 3.630E+01	-1.033E+00	 3.824E+00	 2.187E+01	 3.648E+01	-1.780E+00	-1.782E+00
   11.1400	 2.929E+01	-2.443E-02	 1.588E-01	 2.249E+00	 1.813E+00	 6.982E+01	 2.970E+01	 8.125E-01	 5.428E+01	 9.785E-02	-1.365E-01	-1.414E-02	 3.325E-02	-3.193E-01	-3.344E-03	 4.823E+00	 1.930E+00	 3.545E+01	-6.807E-01	 4.144E+00	 2.399E+01	 3.717E+01	-2.501E+00	-2.502E+00
   11.1600	 3.029E+01	-2.320E-02	 1.605E-01	 2.503E+00	 1.207E+00	 6.566E+01	 3.622E+01	 7.156E-01	 5.429E+01	 9.748E-02	-8.585E-02	-2.251E-02	 3.316E-02	-4.285E-01	-5.534E-03	 4.694E+00	 2.180E+00	 3.479E+01	-1.946E-01	 4.421E+00	 2.649E+01	 3.694E+01	-3.874E+00	-3.874E+00
   11.1800	 3.032E+01	-2.183E-02	 1.632E-01	 2.693E+00	-1.611E-01	 6.366E+01	 4.273E+01	 6.100E-01	 5.429E+01	 9.697E-02	-7.785E-02	-2.782E-02	 3.303E-02	-3.447E-02	-7.071E-03	 4.691E+00	 2.425E+00	 3.496E+01	 3.251E-01	 4.516E+00	 2.891E+01	 3.623E+01	-5.262E+00	-5.261E+00
   11.2000	 2.956E+01	-2.093E-02	 1.661E-01	 2.672E+00	-9.702E-01	 6.418E+01	 4.925E+01	 4.976E-01	 5.429E+01	 9.644E-02	-1.248E-01	-2.278E-02	 3.287E-02	 5.231E-01	-9.028E-03	 4.820E+00	 2.597E+00	 3.585E+01	 7.387E-01	 4.455E+00	 3.076E+01	 3.578E+01	-6.104E+00	-6.103E+00
   11.2200	 2.881E+01	-2.082E-02	 1.689E-01	 2.457E+00	-4.741E-01	 6.514E+01	 5.576E+01	 3.789E-01	 5.428E+01	 9.612E-02	-1.799E-01	-9.044E-03	 3.266E-02	 7.704E-01	-1.212E-02	 4.979E+00	 2.653E+00	 3.684E+01	 9.740E-01	 4.364E+00	 3.179E+01	 3.595E+01	-6.283E+00	-6.281E+00
   11.2400	 2.867E+01	-2.128E-02	 1.718E-01	 2.185E+00	 8.879E-01	 6.510E+01	 6.227E+01	 2.550E-01	 5.428E+01	 9.608E-02	-1.763E-01	 4.703E-03	 3.238E-02	 5.329E-01	-1.582E-02	 5.053E+00	 2.623E+00	 3.742E+01	 1.072E+00	 4.358E+00	 3.219E+01	 3.654E+01	-6.089E+00	-6.087E+00
   11.2600	 2.908E+01	-2.181E-02	 1.746E-01	 1.998E+00	 2.093E+00	 6.405E+01	 6.879E+01	 1.271E-01	 5.429E+01	 9.625E-02	-8.382E-02	 1.061E-02	 3.204E-02	 5.247E-02	-1.856E-02	 5.036E+00	 2.574E+00	 3.757E+01	 1.134E+00	 4.438E+00	 3.241E+01	 3.705E+01	-5.908E+00	-5.905E+00
   11.2800	 2.956E+01	-2.196E-02	 1.767E-01	 1.965E+00	 2.382E+00	 6.294E+01	 7.530E+01	-3.439E-03	 5.429E+01	 9.645E-02	 6.265E-02	 7.966E-03	 3.166E-02	-2.602E-01	-1.880E-02	 4.999E+00	 2.567E+00	 3.763E+01	 1.237E+00	 4.524E+00	 3.282E+01	 3.718E+01	-5.898E+00	-5.895E+00
   11.3000	 2.974E+01	-2.164E-02	 1.778E-01	 2.073E+00	 1.712E+00	 6.269E+01	 8.182E+01	-1.350E-01	 5.429E+01	 9.655E-02	 1.835E-01	 2.875E-03	 3.130E-02	-1.840E-01	-1.623E-02	 4.995E+00	 2.628E+00	 3.788E+01	 1.387E+00	 4.551E+00	 3.354E+01	 3.702E+01	-5.922E+00	-5.918E+00
   11.3200	 2.965E+01	-2.112E-02	 1.776E-01	 2.244E+00	 6.629E-01	 6.335E+01	 8.833E+01	-2.654E-01	 5.430E+01	 9.659E-02	 2.154E-01	 2.480E-03	 3.102E-02	 1.651E-01	-1.207E-02	 5.018E+00	 2.729E+00	 3.831E+01	 1.525E+00	 4.522E+00	 3.435E+01	 3.687E+01	-5.731E+00	-5.728E+00
   11.3400	 2.955E+01	-2.074E-02	 1.768E-01	 2.394E+00	-6.152E-02	 6.423E+01	 9.485E+01	-3.921E-01	 5.430E+01	 9.670E-02	 1.664E-01	 9.210E-03	 3.082E-02	 4.749E-01	-8.165E-03	 5.037E+00	 2.800E+00	 3.873E+01	 1.579E+00	 4.479E+00	 3.483E+01	 3.696E+01	-5.225E+00	-5.221E+00
   11.3600	 2.966E+01	-2.073E-02	 1.757E-01	 2.476E+00	-1.253E-01	 6.469E+01	 1.014E+02	-5.129E-01	 5.430E+01	 9.699E-02	 1.025E-01	 1.951E-02	 3.068E-02	 5.016E-01	-5.518E-03	 5.011E+00	 2.787E+00	 3.896E+01	 1.517E+00	 4.457E+00	 3.468E+01	 3.724E+01	-4.486E+00	-4.484E+00
   11.3800	 2.991E+01	-2.108E-02	 1.747E-01	 2.493E+00	 2.500E-01	 6.474E+01	 1.079E+02	-6.258E-01	 5.430E+01	 9.746E-02	 9.393E-02	 2.745E-02	 3.059E-02	 2.616E-01	-3.680E-03	 4.949E+00	 2.687E+00	 3.904E+01	 1.359E+00	 4.452E+00	 3.391E+01	 3.753E+01	-3.679E+00	-3.677E+00
   11.4000	 3.009E+01	-2.160E-02	 1.740E-01	 2.496E+00	 6.012E-01	 6.463E+01	 1.144E+02	-7.289E-01	 5.431E+01	 9.804E-02	 1.562E-01	 2.957E-02	 3.054E-02	-3.912E-02	-1.272E-03	 4.880E+00	 2.545E+00	 3.910E+01	 1.151E+00	 4.430E+00	 3.277E+01	 3.765E+01	-2.906E+00	-2.904E+00
   11.4200	 3.005E+01	-2.210E-02	 1.735E-01	 2.541E+00	 5.676E-01	 6.458E+01	 1.209E+02	-8.213E-01	 5.431E+01	 9.861E-02	 2.416E-01	 2.694E-02	 3.055E-02	-1.887E-01	 2.726E-03	 4.822E+00	 2.419E+00	 3.925E+01	 9.362E-01	 4.373E+00	 3.158E+01	 3.760E+01	-2.153E+00	-2.153E+00
   11.4400	 2.985E+01	-2.252E-02	 1.731E-01	 2.645E+00	 1.480E-01	 6.458E+01	 1.274E+02	-9.019E-01	 5.431E+01	 9.912E-02	 2.860E-01	 2.347E-02	 3.066E-02	-1.271E-01	 8.102E-03	 4.777E+00	 2.334E+00	 3.949E+01	 7.110E-01	 4.295E+00	 3.048E+01	 3.751E+01	-1.388E+00	-1.388E+00
   11.4600	 2.965E+01	-2.293E-02	 1.728E-01	 2.798E+00	-4.129E-01	 6.448E+01	 1.339E+02	-9.703E-01	 5.431E+01	 9.957E-02	 2.590E-01	 2.261E-02	 3.088E-02	 4.518E-02	 1.367E-02	 4.739E+00	 2.264E+00	 3.975E+01	 4.565E-01	 4.228E+00	 2.937E+01	 3.749E+01	-6.491E-01	-6.502E-01
   11.4800	 2.957E+01	-2.345E-02	 1.725E-01	 2.941E+00	-8.275E-01	 6.433E+01	 1.405E+02	-1.026E+00	 5.431E+01	 1.000E-01	 1.807E-01	 2.493E-02	 3.120E-02	 1.680E-01	 1.811E-02	 4.693E+00	 2.176E+00	 3.997E+01	 1.498E-01	 4.197E+00	 2.803E+01	 3.754E+01	-3.956E-02	-4.135E-02
   11.5000	 2.956E+01	-2.415E-02	 1.720E-01	 3.044E+00	-1.019E+00	 6.432E+01	 1.470E+02	-1.068E+00	 5.431E+01	 1.006E-01	 9.647E-02	 2.840E-02	 3.159E-02	 1.416E-01	 2.088E-02	 4.631E+00	 2.042E+00	 4.014E+01	-2.169E-01	 4.206E+00	 2.633E+01	 3.759E+01	 3.357E-01	 3.333E-01
   11.5200	 2.960E+01	-2.501E-02	 1.714E-01	 3.101E+00	-9.776E-01	 6.432E+01	 1.535E+02	-1.096E+00	 5.431E+01	 1.012E-01	 4.890E-02	 3.005E-02	 3.202E-02	 1.050E-02	 2.227E-02	 4.586E+00	 1.863E+00	 4.033E+01	-6.284E-01	 4.234E+00	 2.428E+01	 3.757E+01	 4.218E-01	 4.189E-01
   11.5400	 2.935E+01	-2.594E-02	 1.707E-01	 3.131E+00	-9.812E-01	 6.462E+01	 1.600E+02	-1.110E+00	 5.432E+01	 1.018E-01	 2.218E-02	 2.850E-02	 3.248E-02	-1.780E-01	 2.297E-02	 4.505E+00	 1.673E+00	 4.044E+01	-1.065E+00	 4.259E+00	 2.203E+01	 3.742E+01	 2.682E-01	 2.649E-01
   11.5600	 2.812E+01	-2.685E-02	 1.698E-01	 3.191E+00	-1.025E+00	 6.473E+01	 1.665E+02	-1.110E+00	 5.431E+01	 1.023E-01	 1.201E-02	 2.362E-02	 3.294E-02	-3.172E-01	 2.333E-02	 4.369E+00	 1.521E+00	 4.020E+01	-1.521E+00	 4.273E+00	 1.960E+01	 3.712E+01	-1.890E-01	-1.926E-01
   11.5800	 2.124E+01	-2.768E-02	 1.683E-01	 3.402E+00	-9.444E-01	 6.434E+01	 1.731E+02	-1.099E+00	 5.431E+01	 1.027E-01	 6.722E-04	 1.731E-02	 3.341E-02	-2.654E-01	 2.357E-02	 4.233E+00	 1.568E+00	 3.961E+01	-1.970E+00	 4.570E+00	 1.714E+01	 3.674E+01	-8.005E-01	-8.043E-01
   11.6000	 3.416E+01	-2.832E-02	 1.659E-01	 3.830E+00	-1.394E+00	 6.494E+01	 1.796E+02	-1.079E+00	 5.431E+01	 1.030E-01	-1.143E-01	 1.135E-02	 3.387E-02	-4.306E-01	 2.235E-02	 3.654E+00	 1.116E+00	 3.707E+01	-2.492E+00	 4.987E+00	 1.415E+01	 3.620E+01	-1.644E+00	-1.647E+00
   11.6200	 3.173E+01	-2.895E-02	 1.613E-01	 3.163E+00	-5.060E-01	 6.181E+01	 1.861E+02	-1.054E+00	 5.430E+01	 1.031E-01	-1.012E-01	 7.070E-03	 3.430E-02	 9.222E-02	 2.032E-02	 4.140E+00	 5.084E-01	 3.836E+01	-2.960E+00	 4.563E+00	 1.046E+01	 3.485E+01	-2.642E+00	-2.646E+00
   11.6400	 3.002E+01	-2.937E-02	 1.587E-01	 3.128E+00	-2.228E+00	 6.781E+01	 1.926E+02	-1.005E+00	 5.428E+01	 1.033E-01	-2.190E-01	 1.078E-02	 3.468E-02	 3.049E-01	 1.708E-02	 4.182E+00	 5.144E-01	 3.939E+01	-3.248E+00	 3.984E+00	 9.421E+00	 3.461E+01	-2.416E+00	-2.419E+00
   11.6600	 2.852E+01	-2.982E-02	 1.589E-01	 3.537E+00	-3.645E+00	 7.055E+01	 1.991E+02	-9.392E-01	 5.428E+01	 1.036E-01	-2.699E-01	 1.656E-02	 3.497E-02	 1.940E-01	 1.204E-02	 4.244E+00	 7.024E-01	 4.019E+01	-3.529E+00	 3.616E+00	 9.538E+00	 3.567E+01	-1.852E+00	-1.854E+00
   11.6800	 2.841E+01	-3.069E-02	 1.617E-01	 3.920E+00	-3.651E+00	 6.738E+01	 2.056E+02	-8.611E-01	 5.428E+01	 1.039E-01	-2.457E-01	 1.603E-02	 3.516E-02	-2.799E-01	 6.796E-03	 4.144E+00	 7.479E-01	 4.004E+01	-3.907E+00	 3.541E+00	 8.835E+00	 3.679E+01	-2.008E+00	-2.010E+00
   11.7000	 2.932E+01	-3.198E-02	 1.662E-01	 4.034E+00	-3.087E+00	 6.322E+01	 2.121E+02	-7.713E-01	 5.428E+01	 1.042E-01	-1.958E-01	 5.874E-03	 3.525E-02	-6.801E-01	 2.371E-03	 3.889E+00	 5.716E-01	 3.935E+01	-4.357E+00	 3.742E+00	 6.820E+00	 3.714E+01	-3.028E+00	-3.029E+00
   11.7200	 3.006E+01	-3.352E-02	 1.706E-01	 3.863E+00	-2.434E+00	 6.135E+01	 2.187E+02	-6.713E-01	 5.429E+01	 1.041E-01	-1.603E-01	-7.869E-03	 3.526E-02	-6.021E-01	-1.126E-03	 3.723E+00	 2.271E-01	 3.906E+01	-4.827E+00	 3.997E+00	 3.858E+00	 3.666E+01	-4.487E+00	-4.486E+00
   11.7400	 2.994E+01	-3.501E-02	 1.735E-01	 3.601E+00	-1.978E+00	 6.201E+01	 2.252E+02	-5.637E-01	 5.429E+01	 1.039E-01	-1.768E-01	-1.526E-02	 3.521E-02	-9.649E-02	-4.396E-03	 3.783E+00	-1.188E-01	 3.967E+01	-5.251E+00	 4.139E+00	 9.848E-01	 3.598E+01	-5.711E+00	-5.710E+00
   11.7600	 2.927E+01	-3.614E-02	 1.751E-01	 3.503E+00	-2.054E+00	 6.409E+01	 2.317E+02	-4.496E-01	 5.428E+01	 1.036E-01	-2.349E-01	-1.188E-02	 3.508E-02	 3.890E-01	-8.485E-03	 3.970E+00	-2.883E-01	 4.078E+01	-5.569E+00	 4.183E+00	-7.576E-01	 3.576E+01	-6.285E+00	-6.283E+00
   11.7800	 2.876E+01	-3.680E-02	 1.763E-01	 3.677E+00	-2.649E+00	 6.556E+01	 2.382E+02	-3.296E-01	 5.428E+01	 1.035E-01	-2.739E-01	-2.608E-03	 3.486E-02	 4.529E-01	-1.366E-02	 4.127E+00	-2.514E-01	 4.170E+01	-5.774E+00	 4.232E+00	-1.171E+00	 3.615E+01	-6.268E+00	-6.265E+00
   11.8000	 2.878E+01	-3.709E-02	 1.778E-01	 4.005E+00	-3.431E+00	 6.531E+01	 2.447E+02	-2.050E-01	 5.428E+01	 1.035E-01	-2.355E-01	 3.266E-03	 3.453E-02	 8.439E-02	-1.891E-02	 4.184E+00	-1.244E-01	 4.208E+01	-5.906E+00	 4.340E+00	-9.129E-01	 3.678E+01	-6.031E+00	-6.028E+00
   11.8200	 2.913E+01	-3.728E-02	 1.796E-01	 4.260E+00	-4.013E+00	 6.414E+01	 2.512E+02	-7.690E-02	 5.429E+01	 1.035E-01	-1.130E-01	 1.933E-04	 3.411E-02	-3.698E-01	-2.250E-02	 4.169E+00	-5.283E-02	 4.209E+01	-6.020E+00	 4.479E+00	-8.425E-01	 3.717E+01	-5.903E+00	-5.899E+00
   11.8400	 2.938E+01	-3.760E-02	 1.814E-01	 4.289E+00	-4.118E+00	 6.348E+01	 2.577E+02	 5.342E-02	 5.429E+01	 1.034E-01	 3.729E-02	-9.498E-03	 3.365E-02	-5.311E-01	-2.324E-02	 4.159E+00	-1.073E-01	 4.207E+01	-6.147E+00	 4.579E+00	-1.394E+00	 3.717E+01	-5.923E+00	-5.919E+00
   11.8600	 2.927E+01	-3.813E-02	 1.826E-01	 4.104E+00	-3.705E+00	 6.386E+01	 2.643E+02	 1.840E-01	 5.430E+01	 1.032E-01	 1.339E-01	-1.844E-02	 3.320E-02	-3.072E-01	-2.138E-02	 4.192E+00	-2.518E-01	 4.217E+01	-6.283E+00	 4.597E+00	-2.373E+00	 3.699E+01	-5.884E+00	-5.880E+00
   11.8800	 2.897E+01	-3.867E-02	 1.833E-01	 3.863E+00	-3.060E+00	 6.474E+01	 2.708E+02	 3.127E-01	 5.430E+01	 1.028E-01	 1.368E-01	-2.067E-02	 3.280E-02	 8.456E-02	-1.853E-02	 4.257E+00	-3.846E-01	 4.231E+01	-6.388E+00	 4.551E+00	-3.181E+00	 3.692E+01	-5.573E+00	-5.569E+00
   11.9000	 2.875E+01	-3.898E-02	 1.836E-01	 3.718E+00	-2.589E+00	 6.532E+01	 2.773E+02	 4.370E-01	 5.430E+01	 1.024E-01	 8.043E-02	-1.609E-02	 3.246E-02	 3.271E-01	-1.631E-02	 4.311E+00	-4.173E-01	 4.227E+01	-6.416E+00	 4.489E+00	-3.298E+00	 3.710E+01	-4.961E+00	-4.958E+00
   11.9200	 2.873E+01	-3.888E-02	 1.836E-01	 3.716E+00	-2.542E+00	 6.528E+01	 2.838E+02	 5.548E-01	 5.430E+01	 1.021E-01	 3.955E-02	-9.677E-03	 3.214E-02	 2.648E-01	-1.520E-02	 4.332E+00	-3.366E-01	 4.198E+01	-6.344E+00	 4.446E+00	-2.625E+00	 3.742E+01	-4.180E+00	-4.177E+00
   11.9400	 2.884E+01	-3.838E-02	 1.832E-01	 3.783E+00	-2.835E+00	 6.498E+01	 2.903E+02	 6.641E-01	 5.430E+01	 1.020E-01	 6.858E-02	-6.862E-03	 3.185E-02	 1.337E-03	-1.425E-02	 4.341E+00	-1.947E-01	 4.156E+01	-6.188E+00	 4.423E+00	-1.466E+00	 3.766E+01	-3.386E+00	-3.384E+00
   11.9600	 2.893E+01	-3.769E-02	 1.822E-01	 3.805E+00	-3.130E+00	 6.502E+01	 2.968E+02	 7.635E-01	 5.431E+01	 1.018E-01	 1.566E-01	-9.402E-03	 3.158E-02	-2.318E-01	-1.205E-02	 4.368E+00	-5.791E-02	 4.115E+01	-5.981E+00	 4.407E+00	-2.339E-01	 3.772E+01	-2.634E+00	-2.632E+00
   11.9800	 2.897E+01	-3.700E-02	 1.808E-01	 3.721E+00	-3.103E+00	 6.555E+01	 3.034E+02	 8.520E-01	 5.431E+01	 1.016E-01	 2.424E-01	-1.478E-02	 3.138E-02	-2.691E-01	-7.997E-03	 4.420E+00	 3.872E-02	 4.084E+01	-5.756E+00	 4.390E+00	 8.509E-01	 3.764E+01	-1.883E+00	-1.883E+00
   12.0000	 2.902E+01	-3.639E-02	 1.794E-01	 3.563E+00	-2.702E+00	 6.622E+01	 3.099E+02	 9.286E-01	 5.431E+01	 1.012E-01	 2.713E-01	-1.886E-02	 3.127E-02	-1.157E-01	-2.741E-03	 4.488E+00	 1.045E-01	 4.059E+01	-5.516E+00	 4.377E+00	 1.876E+00	 3.757E+01	-1.126E+00	-1.127E+00
   12.0200	 2.909E+01	-3.581E-02	 1.782E-01	 3.405E+00	-2.152E+00	 6.659E+01	 3.164E+02	 9.930E-01	 5.431E+01	 1.008E-01	 2.305E-01	-1.910E-02	 3.127E-02	 8.598E-02	 2.374E-03	 4.539E+00	 1.839E-01	 4.030E+01	-5.243E+00	 4.369E+00	 3.064E+00	 3.758E+01	-4.300E-01	-4.313E-01
