
FAST Summary File

Predictions were generated on 05-Feb-2019 at 16:43:23 using FAST (v8.16.00a-bjj, 27-Jul-2016), compiled as a 64-bit application using single precision
  compiled with
    NWTC Subroutine Library (v2.09.00, 23-Jul-2016)
    ElastoDyn (v1.04.00a-bjj, 26-Jul-2016)
    BeamDyn (unknown version, unknown date) [not called]
    InflowWind (v3.03.00, 26-Jul-2016)
    AeroDyn14 (v14.05.01a-bjj, 25-Jul-2016)
    AeroDyn (unknown version, unknown date) [not called]
    ServoDyn (v1.06.00a-bjj, 26-Jul-2016)
    HydroDyn (unknown version, unknown date) [not called]
    SubDyn (unknown version, unknown date) [not called]
    MAP (unknown version, unknown date) [not called]
    FEAMooring (unknown version, unknown date) [not called]
    MoorDyn (unknown version, unknown date) [not called]
    OrcaFlexInterface (unknown version, unknown date) [not called]
    IceFloe (unknown version, unknown date) [not called]
    IceDyn (unknown version, unknown date) [not called]


Modeling a land-based turbine
Description from the FAST input file: 
  ---

Interpolation order for input/output time histories: 1 (linear)
Number of correction iterations:  0


   Requested Time Steps  
  -------------------------------------------------
  Component          Time Step (s)    Subcycles (-)
  -----------------  ---------------  -------------
  FAST (glue code)    4.000E-03
  InflowWind          4.000E-03              1
  ElastoDyn           4.000E-03              1
  AeroDyn14           4.000E-03              1
  ServoDyn            4.000E-03              1
  FAST output files   2.000E-02              5^-1


   Requested Channels in FAST Output File(s)  
  --------------------------------------------
  Number  Name        Units       Generated by
  ------  ----------  ----------  ------------
       1  Time        (s)         FAST
       2  Spn2ALxb1   (m/s^2)     ElastoDyn
       3  TipDyb2     (m)         ElastoDyn
       4  TipDxb2     (m)         ElastoDyn
       5  Spn2ALyb1   (m/s^2)     ElastoDyn
       6  TipALyb2    (m/s^2)     ElastoDyn
       7  TipALxb2    (m/s^2)     ElastoDyn
       8  LSSGagPxa   (deg)       ElastoDyn
       9  TeetDefl    (deg)       ElastoDyn
      10  LSSGagVxa   (rpm)       ElastoDyn
      11  YawBrRDyt   (deg)       ElastoDyn
      12  YawBrRAxp   (deg/s^2)   ElastoDyn
      13  YawBrRVyp   (deg/s)     ElastoDyn
      14  YawBrRDxt   (deg)       ElastoDyn
      15  YawBrRAyp   (deg/s^2)   ElastoDyn
      16  YawBrRVxp   (deg/s)     ElastoDyn
      17  RootFxc2    (kN)        ElastoDyn
      18  Spn3MLxb1   (kN·m)      ElastoDyn
      19  RootMyc1    (kN·m)      ElastoDyn
      20  RootFyc2    (kN)        ElastoDyn
      21  Spn3MLyb1   (kN·m)      ElastoDyn
      22  RootMxc1    (kN·m)      ElastoDyn
      23  RotTorq     (kN·m)      ElastoDyn
      24  YawBrMzn    (kN·m)      ElastoDyn
      25  TwrBsMzt    (kN·m)      ElastoDyn
