
FAST Summary File

Predictions were generated on 18-Feb-2019 at 15:24:17 using OpenFAST, compiled as a 64-bit application using single precision at commit v2.1.0-dirty
  compiled with
    NWTC Subroutine Library
    ElastoDyn
    BeamDyn [not called]
    InflowWind
    AeroDyn14 [not called]
    AeroDyn
    ServoDyn
    HydroDyn [not called]
    SubDyn [not called]
    ExtPtfm_MCKF [not called]
    MAP [not called]
    FEAMooring [not called]
    MoorDyn [not called]
    OrcaFlexInterface [not called]
    IceFloe [not called]
    IceDyn [not called]


Modeling a land-based turbine
Description from the FAST input file: 
  ---

Interpolation order for input/output time histories: 2 (quadratic)
Number of correction iterations:  0


   Requested Time Steps  
  -------------------------------------------------
  Component          Time Step (s)    Subcycles (-)
  -----------------  ---------------  -------------
  FAST (glue code)    6.250E-03
  InflowWind          6.250E-03              1
  ElastoDyn           6.250E-03              1
  AeroDyn             6.250E-03              1
  ServoDyn            6.250E-03              1
  FAST output files   6.250E-03              1


   Requested Channels in FAST Output File(s)  
  --------------------------------------------
  Number  Name        Units       Generated by
  ------  ----------  ----------  ------------
       1  Time        (s)         OpenFAST
       2  IPDefl1     (m)         ElastoDyn
       3  TwstDefl1   (deg)       ElastoDyn
       4  OoPDefl1    (m)         ElastoDyn
       5  Azimuth     (deg)       ElastoDyn
       6  GenSpeed    (rpm)       ElastoDyn
       7  RotSpeed    (rpm)       ElastoDyn
       8  BldPitch1   (deg)       ElastoDyn
       9  TTDspTwst   (deg)       ElastoDyn
      10  TTDspFA     (m)         ElastoDyn
      11  TTDspSS     (m)         ElastoDyn
      12  RootFzb1    (kN)        ElastoDyn
      13  RootMxb1    (kN-m)      ElastoDyn
      14  RootMyb1    (kN-m)      ElastoDyn
      15  RootMzb1    (kN-m)      ElastoDyn
      16  Spn2MLxb1   (kN-m)      ElastoDyn
      17  RootFyb1    (kN)        ElastoDyn
      18  RootFxb1    (kN)        ElastoDyn
      19  Spn2MLyb1   (kN-m)      ElastoDyn
      20  RotTorq     (kN-m)      ElastoDyn
      21  LSSGagMza   (kN-m)      ElastoDyn
      22  LSSGagMya   (kN-m)      ElastoDyn
      23  YawBrFyp    (kN)        ElastoDyn
      24  YawBrMzp    (kN-m)      ElastoDyn
      25  YawBrFzp    (kN)        ElastoDyn
      26  YawBrMxp    (kN-m)      ElastoDyn
      27  TwrBsMxt    (kN-m)      ElastoDyn
      28  YawBrFxp    (kN)        ElastoDyn
      29  TwrBsMyt    (kN-m)      ElastoDyn
      30  TwrBsFyt    (kN)        ElastoDyn
      31  TwrBsMzt    (kN-m)      ElastoDyn
      32  TwrBsFxt    (kN)        ElastoDyn
      33  YawBrMyp    (kN-m)      ElastoDyn
      34  TwrBsFzt    (kN)        ElastoDyn
      35  GenPwr      (kW)        ServoDyn
      36  GenTq       (kN-m)      ServoDyn
